(written by ASE)

21 atoms
1 atom types

21 bonds
1 bond types

0.0      77.673962000000003  xlo xhi
0.0      77.673962000000003  ylo yhi
0.0      77.673962000000003  zlo zhi

Masses

     1      28.084999992775295 # Si

Atoms # full

     1   1   1   0.0      31.619899999999998      7.7415000000000003     -37.164000000000001
     2   1   1   0.0      28.530899999999999      8.8223000000000003     -45.293662000000005
     3   1   1   0.0      27.189599999999995    -0.40720000000000001     -46.783362000000004
     4   1   1   0.0                 17.7759     0.77990000000000004     -45.569862000000008
     5   1   1   0.0                  14.323                   -1.96     -54.031062000000006
     6   1   1   0.0      5.7465999999999999      2.5581999999999998     -53.723062000000013
     7   1   1   0.0      4.4583999999999993      10.730199999999998     -49.935261999999994
     8   1   1   0.0      11.707799999999999                  10.395      -43.80346200000001
     9   1   1   0.0                 10.2293      8.0813000000000006     -34.230599999999995
    10   1   1   0.0      14.906999999999998      12.086499999999997     -27.195199999999996
    11   1   1   0.0      23.444299999999995                 16.2608     -25.857699999999998
    12   1   1   0.0      31.310400000000001      13.050800000000001     -29.197399999999995
    13   2   1   0.0                  5.5705      19.537600000000001     -35.519100000000002
    14   2   1   0.0                 -0.2581      19.718899999999998     -27.262999999999998
    15   2   1   0.0     -9.1402999999999999                  16.887     -27.953800000000001
    16   2   1   0.0     -9.4298000000000002      8.2233999999999998     -31.250499999999999
    17   2   1   0.0     -7.9849999999999994                  1.0281     -37.162700000000001
    18   2   1   0.0      1.2332000000000001      3.8915000000000002     -38.545900000000003
    19   2   1   0.0      10.032099999999998      4.1592000000000002                -35.3384
    20   2   1   0.0      14.324699999999998      11.382899999999999     -30.258299999999995
    21   2   1   0.0      14.212199999999999      21.164899999999996     -31.550899999999995

Bonds

  1   1   1   2
  2   1   1  12
  3   1   2   3
  4   1   3   4
  5   1   4   5
  6   1   5   6
  7   1   6   7
  8   1   7   8
  9   1   8   9
 10   1   9  10
 11   1  10  11
 12   1  11  12
 13   1  13  14
 14   1  13  21
 15   1  14  15
 16   1  15  16
 17   1  16  17
 18   1  17  18
 19   1  18  19
 20   1  19  20
 21   1  20  21
