(written by ASE)

22 atoms
1 atom types

22 bonds
1 bond types

0.0      77.673962000000003  xlo xhi
0.0      77.673962000000003  ylo yhi
0.0      77.673962000000003  zlo zhi

Masses

     1      28.084999992775295 # Si

Atoms # full

     1   1   1   0.0                -12.9793     -8.8141999999999978                  17.288
     2   1   1   0.0     -4.1060999999999988     -5.0801999999999987      16.222999999999999
     3   1   1   0.0      2.6979999999999995     -11.010899999999998      15.384899999999998
     4   1   1   0.0                  5.4962     -16.023499999999999      23.019400000000001
     5   1   1   0.0      14.744400000000001     -14.729799999999997      25.659999999999997
     6   1   1   0.0      12.452999999999999     -17.866399999999999      34.854700000000001
     7   1   1   0.0      4.5277000000000003     -14.393000000000001      40.136762000000012
     8   1   1   0.0                 -1.1553     -21.924299999999999      40.212462000000002
     9   1   1   0.0     -10.269899999999998     -22.032299999999999      42.245161999999993
    10   1   1   0.0     -16.595400000000001     -24.892999999999997      34.865400000000001
    11   1   1   0.0     -17.961099999999998     -18.461399999999998      27.776700000000002
    12   1   1   0.0     -10.262700000000001     -13.632499999999999      24.989299999999997
    13   2   1   0.0     -10.619199999999999     -5.3851000000000004      16.133199999999999
    14   2   1   0.0     -10.678899999999999     -10.111399999999998      24.697299999999995
    15   2   1   0.0     -19.411299999999997     -13.593499999999999                 27.4374
    16   2   1   0.0                -14.8324     -10.143800000000001      35.332000000000001
    17   2   1   0.0     -8.9269999999999996     -4.8647999999999998      29.477599999999999
    18   2   1   0.0     -6.6336000000000004     -10.302599999999998      21.386299999999995
    19   2   1   0.0    -0.43879999999999997     -15.565199999999999      17.478000000000002
    20   2   1   0.0      2.5678999999999998     -13.374999999999998      8.9548000000000005
    21   2   1   0.0      7.4915000000000003     -6.2945000000000002      12.496799999999999
    22   2   1   0.0                 -1.1374     -5.3885999999999994      16.279599999999999

Bonds

  1   1   1   2
  2   1   1  12
  3   1   2   3
  4   1   3   4
  5   1   4   5
  6   1   5   6
  7   1   6   7
  8   1   7   8
  9   1   8   9
 10   1   9  10
 11   1  10  11
 12   1  11  12
 13   1  13  14
 14   1  13  22
 15   1  14  15
 16   1  15  16
 17   1  16  17
 18   1  17  18
 19   1  18  19
 20   1  19  20
 21   1  20  21
 22   1  21  22
