(written by ASE)

24 atoms
1 atom types

24 bonds
1 bond types

0.0      77.673962000000003  xlo xhi
0.0      77.673962000000003  ylo yhi
0.0      77.673962000000003  zlo zhi

Masses

     1      28.084999992775295 # Si

Atoms # full

     1   1   1   0.0     -31.338399999999996     -34.295000000000002      13.567199999999998
     2   1   1   0.0     -39.057362000000005     -39.712562000000013      14.232899999999999
     3   1   1   0.0     -40.032862000000009     -41.089262000000005      23.539100000000001
     4   1   1   0.0     -48.550262000000004                -35.7697      23.384599999999999
     5   1   1   0.0     -44.892662000000001     -27.908799999999999      19.919899999999995
     6   1   1   0.0                -36.8581     -23.371200000000002                 21.6586
     7   1   1   0.0     -39.620162000000008                -15.0244                 25.4772
     8   1   1   0.0     -36.702300000000001     -5.5556000000000001      25.018000000000001
     9   1   1   0.0     -42.255561999999998    0.026800000000000001      19.751499999999997
    10   1   1   0.0     -37.005099999999999     -5.1534000000000004                 13.2418
    11   1   1   0.0              -41.530262     -12.697899999999999      9.3733000000000004
    12   1   1   0.0     -39.862961999999996     -21.664899999999999                 13.1473
    13   1   1   0.0                -31.7439                -25.2499      15.859099999999998
    14   2   1   0.0     -38.837162000000014                -16.3612      18.618099999999998
    15   2   1   0.0     -41.875962000000008                -25.1721      21.888599999999997
    16   2   1   0.0     -40.392962000000004     -35.054499999999997      21.318499999999997
    17   2   1   0.0              -45.566862     -40.677662000000005      16.092700000000001
    18   2   1   0.0     -44.112162000000005     -36.126399999999997                   7.867
    19   2   1   0.0     -37.898699999999991     -30.753699999999995      12.860499999999998
    20   2   1   0.0     -31.294199999999989     -24.388299999999997      9.7446000000000002
    21   2   1   0.0     -37.252499999999991                -18.5227      13.753199999999998
    22   2   1   0.0     -46.103862000000007     -16.680299999999999      11.574199999999999
    23   2   1   0.0      -38.77089999999999                 -11.833      8.2990999999999993
    24   2   1   0.0     -30.811099999999996                -15.3178                 13.4998

Bonds

  1   1   1   2
  2   1   1  13
  3   1   2   3
  4   1   3   4
  5   1   4   5
  6   1   5   6
  7   1   6   7
  8   1   7   8
  9   1   8   9
 10   1   9  10
 11   1  10  11
 12   1  11  12
 13   1  12  13
 14   1  14  15
 15   1  14  24
 16   1  15  16
 17   1  16  17
 18   1  17  18
 19   1  18  19
 20   1  19  20
 21   1  20  21
 22   1  21  22
 23   1  22  23
 24   1  23  24
